 Gaussian 09, Revision C.01,
 Gaussian 09:  EM64L-G09RevC.01 23-Sep-2011

 -------------------------------------------------------
 # opt lanl2dz nosymm geom=connectivity m062x output=wfx
 -------------------------------------------------------

 99/6=200,9=1/99;
 ----
 pdto
 ----
 Charge =  0 Multiplicity = 1

 SCF Done:  E(RM062X) =  -701.026166885     A.U. after   16 cycles
 SCF Done:  E(RM062X) =  -701.027316581     A.U. after   16 cycles
 SCF Done:  E(RM062X) =  -701.027677178     A.U. after   15 cycles
 SCF Done:  E(RM062X) =  -701.027681015     A.U. after   16 cycles
 SCF Done:  E(RM062X) =  -701.028124267     A.U. after   14 cycles
 SCF Done:  E(RM062X) =  -701.028186211     A.U. after   14 cycles
 SCF Done:  E(RM062X) =  -701.028208575     A.U. after   14 cycles
 SCF Done:  E(RM062X) =  -701.028212730     A.U. after   13 cycles
 SCF Done:  E(RM062X) =  -701.028212512     A.U. after   13 cycles
 SCF Done:  E(RM062X) =  -701.028213591     A.U. after   13 cycles
 SCF Done:  E(RM062X) =  -701.028213747     A.U. after    9 cycles
 Optimization completed.
    -- Stationary point found.

                          Input orientation:
 ---------------------------------------------------------------------
 Center     Atomic      Atomic             Coordinates (Angstroms)
 Number     Number       Type             X           Y           Z
 ---------------------------------------------------------------------
      1         15           0       -0.613714   -0.195162   -1.175096
      2          6           0       -1.744908   -1.600309   -1.706041
      3          6           0       -2.686276   -2.064664   -0.765748
      4          1           0       -2.727214   -1.613279    0.222706
      5          6           0       -3.569497   -3.103652   -1.092570
      6          1           0       -4.291954   -3.449368   -0.360091
      7          6           0       -3.510387   -3.702676   -2.361350
      8          1           0       -4.186968   -4.513087   -2.613055
      9          6           0       -2.567738   -3.253881   -3.298227
     10          1           0       -2.512182   -3.715577   -4.278953
     11          6           0       -1.691726   -2.205146   -2.973553
     12          1           0       -0.967347   -1.863729   -3.707598
     13          6           0       -1.687157    1.291321   -1.594973
     14          6           0       -2.913469    1.206381   -2.276534
     15          1           0       -3.295176    0.238404   -2.589362
     16          6           0       -3.650366    2.368986   -2.558943
     17          1           0       -4.597061    2.290180   -3.083995
     18          6           0       -3.164833    3.626038   -2.169888
     19          1           0       -3.733764    4.523193   -2.392281
     20          6           0       -1.940617    3.718070   -1.487485
     21          1           0       -1.560145    4.686315   -1.178388
     22          6           0       -1.212465    2.556190   -1.195454
     23          1           0       -0.270725    2.631523   -0.657019
     24          6           0        0.588657   -0.151161   -2.620875
     25          6           0        1.772456   -0.904711   -2.504984
     26          1           0        1.966092   -1.463426   -1.592744
     27          6           0        2.703875   -0.937565   -3.553799
     28          1           0        3.611250   -1.524471   -3.453128
     29          6           0        2.465302   -0.204785   -4.727036
     30          1           0        3.187044   -0.224341   -5.537437
     31          6           0        1.292888    0.557594   -4.845240
     32          1           0        1.104209    1.129336   -5.748313
     33          6           0        0.358345    0.582817   -3.798077
     34          1           0       -0.546584    1.176289   -3.897913
 ---------------------------------------------------------------------

 Alpha  occ. eigenvalues --  -10.56924 -10.56920 -10.56888 -10.56725 -10.56702
 Alpha  occ. eigenvalues --  -10.56682 -10.56646 -10.56621 -10.56600 -10.56589
 Alpha  occ. eigenvalues --  -10.56568 -10.56560 -10.56517 -10.56506 -10.56478
 Alpha  occ. eigenvalues --  -10.56465 -10.56399 -10.56385  -0.96745  -0.95987
 Alpha  occ. eigenvalues --   -0.95935  -0.86965  -0.84650  -0.84644  -0.84534
 Alpha  occ. eigenvalues --   -0.83965  -0.83944  -0.73435  -0.69250  -0.69185
 Alpha  occ. eigenvalues --   -0.69101  -0.67864  -0.67843  -0.63872  -0.59573
 Alpha  occ. eigenvalues --   -0.59541  -0.57157  -0.52900  -0.52852  -0.52167
 Alpha  occ. eigenvalues --   -0.51828  -0.51814  -0.51505  -0.49343  -0.49271
 Alpha  occ. eigenvalues --   -0.49228  -0.47481  -0.47372  -0.44103  -0.43730
 Alpha  occ. eigenvalues --   -0.43625  -0.42903  -0.40734  -0.40701  -0.40646
 Alpha  occ. eigenvalues --   -0.37722  -0.37674  -0.33117  -0.31378  -0.31318
 Alpha  occ. eigenvalues --   -0.31161  -0.30483  -0.30448  -0.26658
 Alpha virt. eigenvalues --    0.00706   0.00921   0.00975   0.02490   0.02948
 Alpha virt. eigenvalues --    0.03060   0.09845   0.10230   0.15382   0.17312
 Alpha virt. eigenvalues --    0.18082   0.18141   0.19276   0.19421   0.19769

 Mulliken atomic charges:
              1
     1  P    0.886687
     2  C   -0.321122
     3  C   -0.275384
     4  H    0.253005
     5  C   -0.236884
     6  H    0.237208
     7  C   -0.238394
     8  H    0.237450
     9  C   -0.257951
    10  H    0.237096
    11  C   -0.202158
    12  H    0.273137
    13  C   -0.316434
    14  C   -0.213517
    15  H    0.275296
    16  C   -0.256420
    17  H    0.236952
    18  C   -0.238861
    19  H    0.237324
    20  C   -0.236626
    21  H    0.236755
    22  C   -0.270197
    23  H    0.250916
    24  C   -0.330881
    25  C   -0.274774
    26  H    0.251719
    27  C   -0.234708
    28  H    0.236964
    29  C   -0.237328
    30  H    0.237640
    31  C   -0.259070
    32  H    0.237596
    33  C   -0.203045
    34  H    0.278008
 Sum of Mulliken atomic charges =   0.00000

 Dipole moment (field-independent basis, Debye):
    X=             -0.5349    Y=              0.0518    Z=             -1.4970  Tot=              1.5906
 Quadrupole moment (field-independent basis, Debye-Ang):
   XX=           -107.5025   YY=           -109.4029   ZZ=           -107.7098
   XY=              0.4693   XZ=              0.5269   YZ=              0.2580

 Normal termination of Gaussian 09 at Fri Jul  6 11:32:23 2012.
